<VTKFile type="UnstructuredGrid" version="1.0" byte_order="LittleEndian" header_type="UInt64">
  <UnstructuredGrid>
    <FieldData>
      <DataArray type="Float64" Name="cell_law_0" NumberOfTuples="301" format="ascii" RangeMin="-1" RangeMax="1">
        1 1 1 1 1 1
        1 1 1 1 1 1
        1 1 1 1 1 1
        1 1 1 1 1 1
        1 1 -1 -1 1 1
        -1 1 -1 1 -1 -1
        -1 -1 -1 -1 1 -1
        1 -1 -1 -1 -1 1
        -1 -1 -1 -1 1 -1
        -1 1 1 -1 -1 -1
        1 -1 -1 -1 -1 -1
        1 -1 1 -1 -1 1
        -1 -1 -1 1 -1 -1
        1 -1 -1 1 -1 1
        1 -1 1 -1 -1 -1
        -1 -1 -1 -1 -1 -1
        1 -1 -1 -1 1 -1
        1 -1 1 -1 -1 -1
        -1 -1 -1 -1 -1 -1
        1 -1 1 -1 -1 -1
        1 1 -1 1 -1 -1
        -1 -1 -1 1 1 -1
        -1 -1 -1 1 -1 1
        -1 -1 -1 -1 -1 -1
        1 -1 -1 -1 -1 1
        -1 -1 -1 1 -1 -1
        -1 1 1 -1 1 -1
        -1 1 -1 -1 -1 -1
        -1 -1 1 -1 1 -1
        -1 -1 -1 -1 1 -1
        -1 -1 1 -1 -1 -1
        -1 -1 -1 -1 1 -1
        -1 1 -1 1 -1 -1
        1 -1 1 1 -1 1
        -1 -1 -1 1 1 -1
        -1 1 -1 -1 -1 1
        1 -1 1 -1 -1 1
        1 -1 -1 1 -1 -1
        -1 -1 -1 -1 1 -1
        -1 1 -1 -1 1 -1
        -1 -1 1 -1 -1 1
        1 -1 1 1 -1 -1
        -1 1 1 -1 -1 -1
        1 -1 1 -1 -1 1
        -1 -1 -1 -1 -1 -1
        1 1 -1 -1 -1 -1
        1 1 -1 1 1 -1
        -1 -1 -1 -1 -1 -1
        -1 -1 -1 -1 -1 -1
        -1 -1 -1 -1 -1 -1
        -1
      </DataArray>
      <DataArray type="Float64" Name="cell_law_1" NumberOfComponents="3" NumberOfTuples="628" format="ascii" RangeMin="87.430806792" RangeMax="117.14288991">
        45.036800385 45.036800385 59.978801727 44.963199615 44.963199615 60.042499542
        45 45.036800385 59.978801727 45 45.036800385 59.978801727
        44.963199615 44.963199615 60.042499542 45 45.036800385 59.978801727
        44.963199615 44.963199615 60.042499542 45 45.036800385 59.978801727
        45 45.036800385 59.978801727 44.963199615 44.963199615 60.042499542
        45.036800385 45.036800385 59.978801727 45 45 59.978801727
        45.036800385 45.036800385 59.978801727 44.963199615 44.963199615 60.042499542
        45 45.036800385 59.978801727 45 45.036800385 59.978801727
        44.963199615 44.963199615 60.042499542 45 45.036800385 59.978801727
        45.036800385 45.036800385 59.978801727 44.963199615 44.963199615 60.042499542
        44.963199615 44.963199615 60.042499542 45 45.036800385 59.978801727
        45 45.036800385 59.978801727 45 45 59.978801727
        45 59.978801727 59.978801727 44.963199615 59.978801727 60.042499542
        44.963199615 45 59.978801727 45 59.978801727 59.978801727
        44.963199615 59.978801727 60.042499542 44.963199615 45 59.978801727
        44.963199615 59.978801727 60.042499542 44.963199615 45 59.978801727
        44.963199615 59.978801727 60.042499542 44.963199615 45 59.978801727
        44.963199615 45 59.978801727 45 59.978801727 59.978801727
        44.963199615 45 59.978801727 45 59.978801727 59.978801727
        44.963199615 59.978801727 60.042499542 44.963199615 45 59.978801727
        45.036800385 45.036800385 59.978801727 45.036800385 59.978801727 59.978801727
        45.036800385 59.978801727 59.978801727 45.036800385 45.036800385 59.978801727
        44.963199615 59.978801727 60.042499542 44.963199615 45 59.978801727
        45 59.978801727 59.978801727 44.963199615 59.978801727 60.042499542
        45.036800385 59.978801727 59.978801727 45.036800385 59.978801727 59.978801727
        45.036800385 59.978801727 59.978801727 45.036800385 45.036800385 59.978801727
        44.963199615 59.978801727 60.042499542 44.963199615 45 59.978801727
        45 59.978801727 59.978801727 44.963199615 59.978801727 60.042499542
        45.036800385 45.036800385 59.978801727 45.036800385 59.978801727 59.978801727
        45.036800385 59.978801727 59.978801727 45.036800385 45.036800385 59.978801727
        45.036800385 59.978801727 59.978801727 45.036800385 59.978801727 59.978801727
        45.036800385 59.978801727 59.978801727 45.036800385 45.036800385 59.978801727
        44.963199615 59.978801727 60.042499542 44.963199615 45 59.978801727
        45 59.978801727 59.978801727 44.963199615 59.978801727 60.042499542
        45 59.978801727 59.978801727 44.963199615 59.978801727 60.042499542
        44.963199615 59.978801727 60.042499542 44.963199615 45 59.978801727
        44.963199615 45 59.978801727 45 59.978801727 59.978801727
        44.963199615 59.978801727 60.042499542 44.963199615 45 59.978801727
        44.963199615 59.978801727 60.042499542 44.963199615 45 59.978801727
        45 59.978801727 59.978801727 44.963199615 59.978801727 60.042499542
        44.963199615 59.978801727 60.042499542 44.963199615 45 59.978801727
        45 59.978801727 59.978801727 44.963199615 59.978801727 60.042499542
        44.963199615 59.978801727 60.042499542 44.963199615 45 59.978801727
        44.963199615 45 59.978801727 45 59.978801727 59.978801727
        45 59.978801727 90 45 59.978801727 59.978801727
        45 59.978801727 90 45 59.978801727 59.978801727
        45.036800385 45.036800385 59.978801727 44.963199615 44.963199615 60.042499542
        45 45.036800385 59.978801727 45 45.036800385 59.978801727
        44.963199615 44.963199615 60.042499542 45 45.036800385 59.978801727
        44.963199615 44.963199615 60.042499542 45 45.036800385 59.978801727
        45 45.036800385 59.978801727 44.963199615 44.963199615 60.042499542
        45.036800385 45.036800385 59.978801727 45 45 59.978801727
        45 45.036800385 59.978801727 45 45 59.978801727
        45.036800385 45.036800385 59.978801727 44.963199615 44.963199615 60.042499542
        45 45.036800385 59.978801727 44.963199615 44.963199615 60.042499542
        45 45.036800385 59.978801727 45 45.036800385 59.978801727
        44.963199615 44.963199615 60.042499542 45 45 59.978801727
        45 45.036800385 59.978801727 44.963199615 44.963199615 60.042499542
        45.036800385 45.036800385 59.978801727 45 45.036800385 59.978801727
        45.036800385 45.036800385 59.978801727 44.963199615 44.963199615 60.042499542
        45 45.036800385 59.978801727 44.963199615 44.963199615 60.042499542
        45 45.036800385 59.978801727 45 45 59.978801727
        45.036800385 45.036800385 59.978801727 44.963199615 44.963199615 60.042499542
        45.036800385 45.036800385 59.978801727 44.963199615 44.963199615 60.042499542
        45 45.036800385 59.978801727 44.963199615 44.963199615 60.042499542
        45.036800385 45.036800385 59.978801727 44.963199615 44.963199615 60.042499542
        45.036800385 45.036800385 59.978801727 44.963199615 44.963199615 60.042499542
        45 45.036800385 59.978801727 45 45.036800385 59.978801727
        44.963199615 44.963199615 60.042499542 45 45.036800385 59.978801727
        45.036800385 45.036800385 59.978801727 44.963199615 44.963199615 60.042499542
        44.963199615 44.963199615 60.042499542 45 45.036800385 59.978801727
        45 45.036800385 59.978801727 45 45 59.978801727
        45.036800385 45.036800385 59.978801727 44.963199615 44.963199615 60.042499542
        45.036800385 45.036800385 59.978801727 44.963199615 44.963199615 60.042499542
        45 45.036800385 59.978801727 44.963199615 44.963199615 60.042499542
        45 45.036800385 59.978801727 45 45 59.978801727
        45 45.036800385 59.978801727 44.963199615 44.963199615 60.042499542
        45 45.036800385 59.978801727 45 45 59.978801727
        45 45.036800385 59.978801727 44.963199615 44.963199615 60.042499542
        45.036800385 45.036800385 59.978801727 44.963199615 44.963199615 60.042499542
        44.963199615 44.963199615 60.042499542 45 45.036800385 59.978801727
        45 45.036800385 59.978801727 45 45 59.978801727
        45.036800385 45.036800385 59.978801727 44.963199615 44.963199615 60.042499542
        45 45.036800385 59.978801727 45 45.036800385 59.978801727
        44.963199615 44.963199615 60.042499542 45 45.036800385 59.978801727
        44.963199615 44.963199615 60.042499542 45 45.036800385 59.978801727
        45 45.036800385 59.978801727 45.036800385 45.036800385 59.978801727
        44.963199615 44.963199615 60.042499542 45 45.036800385 59.978801727
        45.036800385 45.036800385 59.978801727 44.963199615 44.963199615 60.042499542
        44.963199615 44.963199615 60.042499542 45 45.036800385 59.978801727
        45 45.036800385 59.978801727 45 45 59.978801727
        44.963199615 44.963199615 60.042499542 45.036800385 45.036800385 59.978801727
        44.963199615 44.963199615 60.042499542 45 45.036800385 59.978801727
        45 45.036800385 59.978801727 44.963199615 44.963199615 60.042499542
        45.036800385 45.036800385 59.978801727 45 45 59.978801727
        45.036800385 45.036800385 59.978801727 44.963199615 44.963199615 60.042499542
        45 45.036800385 59.978801727 44.963199615 44.963199615 60.042499542
        45 45.036800385 59.978801727 45 45 59.978801727
        45 45.036800385 59.978801727 44.963199615 44.963199615 60.042499542
        45.036800385 45.036800385 59.978801727 45.036800385 45.036800385 59.978801727
        44.963199615 44.963199615 60.042499542 45 45.036800385 59.978801727
        45.036800385 45.036800385 59.978801727 44.963199615 44.963199615 60.042499542
        44.963199615 44.963199615 60.042499542 45 45.036800385 59.978801727
        45 45.036800385 59.978801727 45 45 59.978801727
        45 45.036800385 59.978801727 45 45 59.978801727
        45.036800385 45.036800385 59.978801727 44.963199615 44.963199615 60.042499542
        44.963199615 44.963199615 60.042499542 45 45.036800385 59.978801727
        45 45.036800385 59.978801727 45 45 59.978801727
        45.036800385 45.036800385 59.978801727 44.963199615 44.963199615 60.042499542
        45 45.036800385 59.978801727 45 45.036800385 59.978801727
        44.963199615 44.963199615 60.042499542 45 45.036800385 59.978801727
[...]
      <PointData>
        <DataArray type="Int64" Name="vtkOriginalPointIds" format="ascii" RangeMin="4" RangeMax="239">
          4 26 27 28 29 5
          6 30 32 38 36 77
          78 62 79 80 81 68
          82 65 126 119 168 176
          177 172 178 179 169 184
          194 195 196 197 239
        </DataArray>
      </PointData>
      <CellData>
        <DataArray type="Float64" Name="cell_colors" NumberOfComponents="3" format="ascii" RangeMin="0.57157678921" RangeMax="0.57157678921">
          0.33000001311 0.33000001311 0.33000001311 0.33000001311 0.33000001311 0.33000001311
          0.33000001311 0.33000001311 0.33000001311 0.33000001311 0.33000001311 0.33000001311
          0.33000001311 0.33000001311 0.33000001311 0.33000001311 0.33000001311 0.33000001311
          0.33000001311 0.33000001311 0.33000001311 0.33000001311 0.33000001311 0.33000001311
          0.33000001311 0.33000001311 0.33000001311 0.33000001311 0.33000001311 0.33000001311
          0.33000001311 0.33000001311 0.33000001311 0.33000001311 0.33000001311 0.33000001311
          0.33000001311 0.33000001311 0.33000001311 0.33000001311 0.33000001311 0.33000001311
          0.33000001311 0.33000001311 0.33000001311 0.33000001311 0.33000001311 0.33000001311
          0.33000001311 0.33000001311 0.33000001311 0.33000001311 0.33000001311 0.33000001311
          0.33000001311 0.33000001311 0.33000001311 0.33000001311 0.33000001311 0.33000001311
          0.33000001311 0.33000001311 0.33000001311 0.33000001311 0.33000001311 0.33000001311
          0.33000001311 0.33000001311 0.33000001311 0.33000001311 0.33000001311 0.33000001311
          0.33000001311 0.33000001311 0.33000001311 0.33000001311 0.33000001311 0.33000001311
          0.33000001311 0.33000001311 0.33000001311 0.33000001311 0.33000001311 0.33000001311
          0.33000001311 0.33000001311 0.33000001311 0.33000001311 0.33000001311 0.33000001311
          0.33000001311 0.33000001311 0.33000001311 0.33000001311 0.33000001311 0.33000001311
          0.33000001311 0.33000001311 0.33000001311 0.33000001311 0.33000001311 0.33000001311
          0.33000001311 0.33000001311 0.33000001311 0.33000001311 0.33000001311 0.33000001311
          0.33000001311 0.33000001311 0.33000001311 0.33000001311 0.33000001311 0.33000001311
          0.33000001311 0.33000001311 0.33000001311
        </DataArray>
        <DataArray type="Int64" Name="vtkOriginalCellIds" format="ascii" RangeMin="32" RangeMax="487">
          32 34 35 38 39 42
          43 62 63 124 125 126
          127 128 129 130 131 236
          237 242 243 353 354 355
          356 357 358 359 360 397
          398 399 400 401 402 403
          404 480 487
        </DataArray>
      </CellData>
      <Points>
        <DataArray type="Float32" Name="Points" NumberOfComponents="3" format="ascii" RangeMin="5" RangeMax="12.242217109">
          0 -4.9935898781 5 0 0 10
          0 -4.9935898781 10 2.4967899323 -2.4967899323 7.5
          -2.4967899323 -2.4967899323 7.5 0 0 5
          -4.9935898781 0 5 -4.9935898781 0 10
          -4.9935898781 -4.9935898781 10 4.9935898781 -4.9935898781 10
          4.9935898781 0 10 -4.9935898781 -4.9935898781 10
          -4.9935898781 -2.4967899323 7.5 -4.9935898781 -4.9935898781 7.5
          -7.4903798103 -2.4967899323 7.5 -4.9935898781 -2.4967899323 10
          -2.4967899323 -2.4967899323 7.5 -2.4967899323 -4.9935898781 7.5
          -2.4967899323 -4.9935898781 10 -2.4967899323 -7.4903798103 7.5
          -4.9935898781 0 10 -4.9935898781 0 7.5
          0 -4.9935898781 7.5 0 -4.9935898781 10
          0 -4.9935898781 10 2.4967899323 -4.9935898781 7.5
          2.4967899323 -2.4967899323 7.5 2.4967899323 -4.9935898781 10
          2.4967899323 -7.4903798103 7.5 4.9935898781 -4.9935898781 7.5
          4.9935898781 -4.9935898781 10 4.9935898781 -2.4967899323 7.5
          4.9935898781 -2.4967899323 10 7.4903798103 -2.4967899323 7.5
          4.9935898781 0 10
        </DataArray>
      </Points>
      <Cells>
        <DataArray type="Int64" Name="connectivity" format="ascii" RangeMin="0" RangeMax="34">
          0 1 2 3 0 2
          1 4 0 1 5 4
          6 1 7 4 6 5
          1 4 8 1 2 4
          8 7 1 4 2 1
          9 3 1 10 9 3
          11 12 13 14 12 11
          15 14 13 12 11 16
          11 12 15 16 13 11
          17 16 11 18 17 16
          13 17 11 19 17 18
          11 19 14 15 12 20
          12 20 21 14 12 21
          20 16 12 20 15 16
          22 23 17 19 23 18
          17 19 16 18 17 23
          17 23 22 16 22 24
          25 26 24 27 25 26
          22 25 24 28 25 27
          24 28 29 30 25 28
          30 27 25 28 26 27
          25 30 25 30 29 26
          30 31 29 26 31 30
          32 26 29 31 30 33
          30 31 32 33 26 32
          31 34 31 34 32 33
        </DataArray>
        <DataArray type="Int64" Name="offsets" format="ascii" RangeMin="4" RangeMax="156">
          4 8 12 16 20 24
          28 32 36 40 44 48
          52 56 60 64 68 72
          76 80 84 88 92 96
          100 104 108 112 116 120
          124 128 132 136 140 144
          148 152 156
        </DataArray>
        <DataArray type="UInt8" Name="types" format="ascii" RangeMin="10" RangeMax="10">
          10 10 10 10 10 10
          10 10 10 10 10 10
          10 10 10 10 10 10
          10 10 10 10 10 10
          10 10 10 10 10 10
          10 10 10 10 10 10
          10 10 10
        </DataArray>
      </Cells>
    </Piece>
  </UnstructuredGrid>
</VTKFile>
